# LAMMPS data file written by OVITO Basic 3.3.5
22106 atoms
1 atom types
-25.5 25.5 xlo xhi
-51.0 51.0 ylo yhi
-25.0 25.0 zlo zhi

Atoms  # atomic

1 1 -23.2223349 -49.9318968 -24.7396575
2 1 -24.3617769 -47.830605 -24.7396325
3 1 -22.5806325 -48.469788 -22.953935
4 1 -24.8675133 -49.7466138 -22.953935
5 1 -23.2223298 -49.9319478 -21.168185
6 1 -24.3618075 -47.8305948 -21.16819
7 1 -17.553588 -49.9390674 -24.739605
8 1 -20.8660584 -49.2209466 -24.739605
9 1 -19.228785 -49.7547432 -22.9539
10 1 -18.702975 -47.8765968 -24.7395935
11 1 -20.333649 -47.3883738 -22.9539
12 1 -17.553588 -49.9390572 -21.16819
13 1 -20.8660737 -49.2209772 -21.16819
14 1 -18.702975 -47.8766172 -21.16819
15 1 -13.026828 -47.8817682 -24.7396145
16 1 -13.550037 -49.7577522 -22.95391
17 1 -15.191268 -49.230504 -24.7396065
18 1 -14.661174 -47.3983698 -22.9539
19 1 -16.910478 -48.4896984 -22.9539
20 1 -13.026828 -47.8817682 -21.16819
21 1 -15.191268 -49.2305244 -21.16819
22 1 -9.511704 -49.2310548 -24.739615
23 1 -8.982987 -47.399196 -22.9539
24 1 -11.87331 -49.9395468 -24.739618
25 1 -11.231832 -48.4910856 -22.9539
26 1 -9.511704 -49.2310446 -21.168195
27 1 -11.87331 -49.9395468 -21.16819
28 1 -6.193797 -49.9395876 -24.739621
29 1 -5.552523 -48.491361 -22.9539
30 1 -7.870371 -49.757895 -22.9539
31 1 -7.347927 -47.8821558 -24.7396155
32 1 -6.193797 -49.9395876 -21.168195
33 1 -7.347927 -47.8821558 -21.168195
34 1 -0.513978 -49.9396794 -24.739627
35 1 -1.668465 -47.8827678 -24.73963
36 1 -2.190654 -49.758201 -22.95391
37 1 -3.832191 -49.2316158 -24.739629
38 1 -3.303729 -47.3999916 -22.95391
39 1 -0.513978 -49.9396794 -21.1682
40 1 -1.668465 -47.8827678 -21.1682
41 1 -3.832191 -49.2316158 -21.168195
42 1 1.847781 -49.2321564 -24.739616
43 1 3.489267 -49.7584458 -22.953905
44 1 4.011303 -47.8830534 -24.7396145
45 1 2.37609 -47.4005934 -22.953905
46 1 0.127245 -48.4917894 -22.953905
47 1 1.847781 -49.2321564 -21.1682
48 1 4.011354 -47.8830432 -21.1682
49 1 5.165739 -49.9397202 -24.739616
50 1 7.527294 -49.2320646 -24.73962
51 1 8.055756 -47.4003588 -22.95391
52 1 5.807064 -48.4918608 -22.9539
53 1 5.165739 -49.9397202 -21.168195
54 1 7.527294 -49.232085 -21.168195
55 1 10.843773 -49.9396794 -24.739639
56 1 9.690612 -47.882574 -24.7396235
57 1 11.485557 -48.4914018 -22.953915
58 1 9.16827 -49.758405 -22.953915
59 1 10.843773 -49.9396896 -21.16819
60 1 9.690663 -47.8825944 -21.168195
61 1 16.517217 -49.9393224 -24.7396435
62 1 13.204818 -49.2311772 -24.7396365
63 1 14.844468 -49.7579868 -22.95392
64 1 15.36783 -47.880993 -24.7396285
65 1 13.733841 -47.399043 -22.953915
66 1 16.517217 -49.9393224 -21.16819
67 1 13.204818 -49.2311976 -21.16819
68 1 15.36783 -47.8810032 -21.16819
69 1 20.508222 -49.7549064 -22.953925
70 1 18.876834 -49.2249042 -24.7396315
71 1 19.411314 -47.3930148 -22.953895
72 1 17.161245 -48.489372 -22.953915
73 1 18.876834 -49.2249654 -21.16819
74 1 24.515598 -49.2209874 -24.7396765
75 1 25.045794 -47.3858238 -22.953905
76 1 22.166691 -49.938843 -24.7396935
77 1 21.044691 -47.8698342 -24.7396275
78 1 22.819083 -48.482436 -22.95393
79 1 24.515649 -49.2211098 -21.16819
80 1 22.166691 -49.9388226 -21.16819
81 1 21.044691 -47.8698546 -21.16819
82 1 -22.0206831 -46.8453972 -24.7396105
83 1 -23.1927294 -44.5239078 -24.7396015
84 1 -21.4887939 -45.0902934 -22.9539
85 1 -23.7693558 -46.1814588 -22.953885
86 1 -24.8365002 -43.9427628 -22.953885
87 1 -22.0206984 -46.8454278 -21.16819
88 1 -23.192709 -44.5238976 -21.16819
89 1 -19.787337 -45.6221928 -24.73959
90 1 -18.069045 -46.2026748 -22.95389
91 1 -17.489736 -44.5205622 -24.739597
92 1 -19.2066 -43.9255452 -22.953895
93 1 -20.9150082 -43.3545492 -24.7396145
94 1 -19.787388 -45.622203 -21.16819
95 1 -17.489736 -44.520552 -21.16819
96 1 -20.914998 -43.354539 -21.16819
97 1 -16.351926 -46.85982 -24.739591
98 1 -14.10813 -45.6298326 -24.739607
99 1 -15.22605 -43.3563852 -24.7396065
100 1 -13.52265 -43.9269222 -22.953905
101 1 -15.795363 -45.0987798 -22.953895
102 1 -16.351977 -46.85982 -21.16819
103 1 -14.10813 -45.6298326 -21.16819
104 1 -15.22605 -43.356375 -21.168195
105 1 -10.67532 -46.8619314 -24.739617
106 1 -11.811141 -44.5226328 -24.739615
107 1 -10.118655 -45.1007178 -22.953905
108 1 -12.393714 -46.2072852 -22.953905
109 1 -9.548016 -43.3573236 -24.739618
110 1 -10.67532 -46.8619212 -21.16819
111 1 -11.811141 -44.5226226 -21.16819
112 1 -9.548016 -43.3573134 -21.168195
113 1 -4.99647 -46.862829 -24.739622
114 1 -4.440213 -45.1022376 -22.9539
115 1 -8.430912 -45.6311076 -24.7396155
116 1 -6.715578 -46.2082644 -22.9539
117 1 -6.133311 -44.5242342 -24.7396195
118 1 -7.845228 -43.9284318 -22.953905
119 1 -4.99647 -46.862829 -21.168195
120 1 -8.430912 -45.6311076 -21.168195
121 1 -6.133311 -44.524224 -21.168195
122 1 -0.454257 -44.5257846 -24.7396225
123 1 -1.036269 -46.2093762 -22.953905
124 1 -2.752011 -45.6323724 -24.7396265
125 1 -3.869676 -43.3593738 -24.7396185
126 1 -2.166531 -43.9302678 -22.953905
127 1 -0.454257 -44.5257846 -21.168195
128 1 -2.752011 -45.6323724 -21.168195
129 1 -3.869676 -43.3593636 -21.168195
130 1 2.927604 -45.6331578 -24.7396165
131 1 3.512778 -43.9313082 -22.953905
132 1 0.683145 -46.8637266 -24.739628
133 1 1.239147 -45.1034616 -22.953905
134 1 1.809327 -43.3608426 -24.739612
135 1 2.927604 -45.633168 -21.168195
136 1 0.683145 -46.8637164 -21.1682
137 1 1.809327 -43.3608426 -21.168195
138 1 6.363015 -46.8637572 -24.7396165
139 1 7.488993 -43.361016 -24.7396085
140 1 6.918966 -45.1035432 -22.9539
141 1 4.643499 -46.2098148 -22.9539
142 1 5.225358 -44.526315 -24.7396065
143 1 6.363015 -46.8637776 -21.168195
144 1 7.488993 -43.3610262 -21.168195
145 1 5.225358 -44.5263252 -21.168195
146 1 12.041967 -46.8625536 -24.7396225
147 1 10.905228 -44.525295 -24.7396085
148 1 12.598683 -45.1019622 -22.9539
149 1 10.323165 -46.2090396 -22.9539
150 1 8.607474 -45.6327906 -24.739616
151 1 9.192597 -43.9309104 -22.9539
152 1 12.041967 -46.8625638 -21.16819
153 1 10.905228 -44.5253256 -21.16819
154 1 8.607474 -45.632811 -21.168195
155 1 14.286528 -45.6308322 -24.73961
156 1 16.000638 -46.2065916 -22.953895
157 1 16.584486 -44.5216638 -24.739599
158 1 14.872926 -43.9284726 -22.9539
159 1 13.16922 -43.3594452 -24.739599
160 1 14.286477 -45.630873 -21.16819
161 1 16.584486 -44.5216944 -21.16819
162 1 13.16922 -43.3594758 -21.16819
163 1 17.718012 -46.858545 -24.7396095
164 1 19.962063 -45.6283026 -24.739576
165 1 18.852354 -43.3562118 -24.739582
166 1 20.548767 -43.9268916 -22.953885
167 1 18.274983 -45.09828 -22.95388
168 1 17.718012 -46.8585756 -21.16819
169 1 19.962063 -45.6283434 -21.16819
170 1 18.852354 -43.3562322 -21.16819
171 1 23.408184 -46.8379104 -24.739625
172 1 22.250178 -44.5287834 -24.739584
173 1 23.988615 -45.1311546 -22.95392
174 1 21.686934 -46.1993292 -22.953885
175 1 24.518811 -43.4217468 -24.7395855
176 1 23.408184 -46.8379512 -21.16819
177 1 22.250178 -44.5287834 -21.16819
178 1 24.51876 -43.4217468 -21.168195
179 1 -22.0145172 -41.0614668 -24.739629
180 1 -22.6021647 -42.7809318 -22.9539
181 1 -21.465951 -39.350172 -22.95393
182 1 -24.2775759 -42.1784484 -24.739607
183 1 -23.7498636 -40.478496 -22.95393
184 1 -23.1781791 -38.790294 -24.739649
185 1 -22.014507 -41.0614362 -21.16819
186 1 -24.2775657 -42.1784382 -21.16819
187 1 -23.1782046 -38.790294 -21.16819
188 1 -18.626577 -42.2209008 -24.7396215
189 1 -17.475864 -38.781012 -24.739629
190 1 -18.047982 -40.50216 -22.953915
191 1 -20.324826 -41.637828 -22.95391
192 1 -19.750107 -39.924534 -24.7396435
193 1 -18.626577 -42.2208906 -21.16819
194 1 -17.475864 -38.781012 -21.168195
195 1 -19.750107 -39.924534 -21.168195
196 1 -12.945024 -42.2207988 -24.7396235
197 1 -14.073552 -39.926574 -24.73962
198 1 -14.64975 -41.6407452 -22.95391
199 1 -16.924248 -42.7984248 -22.9539
200 1 -16.350957 -41.0719218 -24.7396265
201 1 -15.775065 -39.3516 -22.953915
202 1 -12.945024 -42.2207988 -21.16819
203 1 -14.073552 -39.926574 -21.168195
204 1 -16.350957 -41.0719116 -21.16819
205 1 -10.672566 -41.0715852 -24.739617
206 1 -8.970951 -41.6415102 -22.95391
207 1 -11.244072 -42.7983636 -22.95391
208 1 -10.09749 -39.35262 -22.953905
209 1 -12.372039 -40.501854 -22.95391
210 1 -11.798493 -38.780706 -24.739614
211 1 -10.672566 -41.0715852 -21.16819
212 1 -11.798493 -38.780706 -21.168195
213 1 -7.266684 -42.222492 -24.7396205
214 1 -5.565987 -42.8004342 -22.95391
215 1 -4.994022 -41.0740128 -24.7396255
216 1 -6.119643 -38.783358 -24.7396255
217 1 -4.41864 -39.355272 -22.95391
218 1 -6.693342 -40.503996 -22.95391
219 1 -8.395059 -39.928104 -24.739619
220 1 -7.266684 -42.222492 -21.168195
221 1 -4.993971 -41.0740128 -21.168195
222 1 -6.119643 -38.783358 -21.168195
223 1 -8.395059 -39.928104 -21.168195
224 1 -1.58814 -42.2247156 -24.739619
225 1 -2.716413 -39.930756 -24.7396235
226 1 -1.014798 -40.506444 -22.9539
227 1 -3.292458 -41.643948 -22.95391
228 1 -0.441201 -38.785908 -24.739613
229 1 -1.58814 -42.2247156 -21.168195
230 1 -2.716413 -39.930756 -21.168195
231 1 -0.441201 -38.785908 -21.168195
232 1 4.090812 -42.22596 -24.739605
233 1 0.684522 -41.0761446 -24.7396145
234 1 2.386188 -41.6456718 -22.9539
235 1 0.112812 -42.8023314 -22.95391
236 1 2.961876 -39.932592 -24.7396095
237 1 1.259649 -39.357516 -22.9539
238 1 4.090812 -42.22596 -21.168195
239 1 0.684522 -41.0761446 -21.168195
240 1 2.961825 -39.932592 -21.168195
241 1 8.065497 -41.6460186 -22.9539
242 1 5.792121 -42.8030556 -22.9539
243 1 6.363372 -41.0770932 -24.739606
244 1 5.236782 -38.78754 -24.739612
245 1 6.937836 -39.358842 -22.9539
246 1 4.663695 -40.507872 -22.953895
247 1 6.363372 -41.0770932 -21.168195
248 1 5.236782 -38.78754 -21.168195
249 1 12.043548 -41.0764914 -24.739609
250 1 11.472093 -42.802107 -22.953905
251 1 12.618114 -39.358944 -22.953905
252 1 9.770529 -42.2256234 -24.739608
253 1 8.640675 -39.933306 -24.739614
254 1 10.343208 -40.507974 -22.9539
255 1 10.915785 -38.788356 -24.7396305
256 1 12.043548 -41.076471 -21.16819
257 1 9.770529 -42.2256438 -21.168195
258 1 8.640624 -39.933306 -21.168195
259 1 10.915785 -38.788356 -21.168195
260 1 15.451419 -42.2236956 -24.739595
261 1 16.599582 -38.789682 -24.739613
262 1 16.024812 -40.507464 -22.953885
263 1 13.745979 -41.6447742 -22.953895
264 1 14.321871 -39.932796 -24.73961
265 1 15.451419 -42.2237058 -21.16819
266 1 16.599582 -38.78958 -21.16819
267 1 14.321871 -39.932796 -21.168195
268 1 20.008116 -39.943302 -24.739605
269 1 19.433448 -41.64507 -22.95389
270 1 17.154513 -42.799302 -22.953895
271 1 17.726274 -41.0765934 -24.73959
272 1 18.301656 -39.362718 -22.9539
273 1 20.008167 -39.943302 -21.168195
274 1 17.726274 -41.076573 -21.16819
275 1 23.439447 -41.0870382 -24.739604
276 1 25.074099 -41.6510166 -22.95388
277 1 22.841931 -42.8262606 -22.95389
278 1 24.012075 -39.399744 -22.953915
279 1 21.145518 -42.2264904 -24.739583
280 1 21.72702 -40.523376 -22.953895
281 1 22.274505 -38.813244 -24.7396225
282 1 23.439447 -41.0870178 -21.16819
283 1 21.145518 -42.2265006 -21.16819
284 1 22.274505 -38.813244 -21.16819
285 1 -24.2560284 -36.455004 -24.739647
286 1 -22.5768738 -37.055478 -22.953925
287 1 -24.8119335 -38.224194 -22.953945
288 1 -21.9836316 -35.346774 -24.739632
289 1 -23.7198501 -34.76364 -22.95389
290 1 -24.2560284 -36.455004 -21.16819
291 1 -21.9836265 -35.346774 -21.168195
292 1 -20.885112 -37.641774 -24.739643
293 1 -19.179519 -38.211954 -22.95392
294 1 -18.603933 -36.491316 -24.7396205
295 1 -18.025338 -34.768536 -22.9539
296 1 -20.29647 -35.92083 -22.95391
297 1 -20.8851273 -37.641774 -21.168195
298 1 -18.603984 -36.491418 -21.168195
299 1 -12.924981 -36.488562 -24.7396115
300 1 -13.499088 -38.208078 -22.953905
301 1 -15.200652 -37.633818 -24.739612
302 1 -16.32714 -35.341776 -24.7395995
303 1 -14.626443 -35.91522 -22.953905
304 1 -16.903083 -37.061496 -22.953905
305 1 -12.924981 -36.488562 -21.168195
306 1 -15.200652 -37.633818 -21.168195
307 1 -16.327191 -35.341776 -21.168195
308 1 -9.522057 -37.635756 -24.739615
309 1 -8.94693 -35.918076 -22.953905
310 1 -11.223723 -37.0617 -22.953905
311 1 -10.648494 -35.343816 -24.7396085
312 1 -12.349956 -34.769862 -22.953905
313 1 -9.522057 -37.635756 -21.1682
314 1 -10.648494 -35.343816 -21.168195
315 1 -4.969185 -35.347182 -24.739614
316 1 -5.544618 -37.064862 -22.95391
317 1 -7.820442 -38.210628 -22.953905
318 1 -7.245723 -36.491826 -24.7396115
319 1 -6.670494 -34.773534 -22.953905
320 1 -4.969185 -35.347182 -21.1682
321 1 -7.245723 -36.491826 -21.1682
322 1 -1.567026 -36.494478 -24.7396155
323 1 -2.141745 -38.21328 -22.953905
324 1 -0.991746 -34.776084 -22.953905
325 1 -3.843105 -37.638714 -24.7396155
326 1 -3.267927 -35.921136 -22.953905
327 1 -1.567026 -36.494478 -21.1682
328 1 -3.843156 -37.638714 -21.1682
329 1 1.83498 -37.640958 -24.7396095
330 1 3.536136 -38.21532 -22.953905
331 1 4.1106 -36.496416 -24.7396155
332 1 2.410056 -35.923176 -22.953905
333 1 0.133773 -37.067208 -22.953905
334 1 0.709155 -35.349528 -24.739609
335 1 1.83498 -37.640958 -21.1682
336 1 4.1106 -36.496416 -21.1682
337 1 0.709155 -35.349426 -21.1682
338 1 7.512504 -37.64259 -24.7396255
339 1 6.386271 -35.351364 -24.739619
340 1 8.086968 -35.925216 -22.953915
341 1 5.811195 -37.069044 -22.95391
342 1 4.685727 -34.77792 -22.95391
343 1 7.512504 -37.64259 -21.168195
344 1 6.386322 -35.351364 -21.1682
345 1 9.787767 -36.498558 -24.739633
346 1 11.489178 -37.071084 -22.95392
347 1 9.21417 -38.216646 -22.95391
348 1 12.063183 -35.354832 -24.7396325
349 1 10.362282 -34.780878 -22.95392
350 1 9.787767 -36.498558 -21.168195
351 1 12.063183 -35.354832 -21.168195
352 1 13.192272 -37.644222 -24.7396375
353 1 14.896386 -38.217768 -22.953905
354 1 15.469167 -36.502842 -24.739637
355 1 16.041336 -34.789242 -22.953915
356 1 13.765308 -35.929194 -22.95392
357 1 13.192272 -37.644222 -21.168195
358 1 15.469167 -36.502842 -21.16819
359 1 20.582274 -38.231232 -22.95391
360 1 18.88275 -37.651362 -24.739624
361 1 17.747439 -35.36493 -24.7396325
362 1 19.458081 -35.939802 -22.953915
363 1 17.175627 -37.075878 -22.95391
364 1 18.88275 -37.651362 -21.168195
365 1 17.747388 -35.36493 -21.168195
366 1 24.541761 -37.70073 -24.739644
367 1 25.096641 -35.92797 -22.953905
368 1 21.168621 -36.51447 -24.7396325
369 1 22.863351 -37.102704 -22.95392
370 1 23.459184 -35.36697 -24.7396305
371 1 21.744666 -34.805154 -22.953905
372 1 24.541812 -37.700832 -21.16819
373 1 21.168621 -36.51447 -21.16819
374 1 23.459133 -35.36697 -21.168195
375 1 -23.1433818 -33.084312 -24.7396145
376 1 -21.4330407 -33.633072 -22.95391
377 1 -22.5390777 -31.343172 -22.953905
378 1 -24.7876473 -32.521374 -22.95387
379 1 -24.2102916 -30.769524 -24.7396035
380 1 -23.1433359 -33.084312 -21.168195
381 1 -24.2102763 -30.769524 -21.168195
382 1 -19.723842 -34.196622 -24.7396115
383 1 -17.452302 -33.047796 -24.739596
384 1 -18.578943 -30.754836 -24.739602
385 1 -19.155855 -32.47629 -22.9539
386 1 -20.8575312 -31.910904 -24.7396075
387 1 -19.723893 -34.196622 -21.168195
388 1 -17.452302 -33.047796 -21.168195
389 1 -18.578943 -30.754836 -21.1682
390 1 -20.8575159 -31.910904 -21.168195
391 1 -14.050959 -34.196112 -24.739605
392 1 -15.176529 -31.902846 -24.739601
393 1 -13.475322 -32.47731 -22.953905
394 1 -15.751299 -33.621852 -22.9539
395 1 -12.899583 -30.75912 -24.739617
396 1 -16.878297 -31.32879 -22.9539
397 1 -14.050959 -34.196112 -21.1682
398 1 -15.176529 -31.902846 -21.1682
399 1 -12.899583 -30.75912 -21.168195
400 1 -11.774268 -33.051672 -24.739613
401 1 -10.07301 -33.626034 -22.95391
402 1 -9.49722 -31.908048 -24.7396265
403 1 -11.198376 -31.333788 -22.95391
404 1 -11.774268 -33.051672 -21.168195
405 1 -9.49722 -31.908048 -21.1682
406 1 -4.393701 -33.6294 -22.953905
407 1 -8.371701 -34.199988 -24.7396155
408 1 -6.094857 -33.055752 -24.739616
409 1 -7.220172 -30.764118 -24.739623
410 1 -5.519118 -31.337868 -22.95391
411 1 -7.796064 -32.482002 -22.953905
412 1 -8.371701 -34.199988 -21.1682
413 1 -6.094857 -33.055752 -21.1682
414 1 -7.220172 -30.764118 -21.168195
415 1 -0.416211 -33.057996 -24.7396085
416 1 -2.692647 -34.202946 -24.739612
417 1 -3.818064 -31.911414 -24.7396115
418 1 -2.117112 -32.484756 -22.9539
419 1 -1.541424 -30.766566 -24.7396115
420 1 -0.416211 -33.057996 -21.1682
421 1 -2.692647 -34.202946 -21.1682
422 1 -3.818064 -31.911414 -21.1682
423 1 -1.541424 -30.766566 -21.168195
424 1 2.985234 -34.204782 -24.7396135
425 1 4.136712 -30.768198 -24.739612
426 1 3.560871 -32.486388 -22.953905
427 1 1.284639 -33.63144 -22.953905
428 1 1.860225 -31.913148 -24.7396105
429 1 0.159477 -31.339908 -22.953905
430 1 2.985234 -34.204782 -21.1682
431 1 4.136661 -30.768198 -21.1682
432 1 1.860225 -31.91325 -21.1682
433 1 7.537698 -31.915188 -24.7396175
434 1 6.961755 -33.633378 -22.953915
435 1 5.261364 -33.05973 -24.7396115
436 1 5.837307 -31.341642 -22.953905
437 1 7.537698 -31.915188 -21.1682
438 1 5.261364 -33.05973 -21.1682
439 1 10.937817 -33.0633 -24.73963
440 1 12.638004 -33.638274 -22.953915
441 1 11.514321 -31.345722 -22.953905
442 1 8.661993 -34.207128 -24.739624
443 1 9.237834 -32.48904 -22.95391
444 1 9.814287 -30.771054 -24.7396165
445 1 10.937817 -33.063402 -21.168195
446 1 8.661993 -34.207128 -21.1682
447 1 9.814287 -30.771054 -21.168195
448 1 14.338803 -34.213656 -24.7396365
449 1 16.614423 -33.07503 -24.739634
450 1 15.490281 -30.780744 -24.7396165
451 1 14.913879 -32.49771 -22.953915
452 1 13.214049 -31.921206 -24.739621
453 1 14.338854 -34.213656 -21.168195
454 1 16.614423 -33.07503 -21.168195
455 1 15.490281 -30.780744 -21.168195
456 1 13.214049 -31.921206 -21.168195
457 1 20.024793 -34.231608 -24.7396325
458 1 18.88989 -31.939158 -24.7396235
459 1 20.589006 -32.518212 -22.95391
460 1 18.316599 -33.65337 -22.95392
461 1 17.189499 -31.359492 -22.95391
462 1 20.024793 -34.231608 -21.168195
463 1 18.88989 -31.939158 -21.168195
464 1 22.28802 -33.095022 -24.7396225
465 1 24.027579 -33.679584 -22.95388
466 1 24.559407 -31.97955 -24.739609
467 1 22.86432 -31.391112 -22.95391
468 1 21.161481 -30.80247 -24.7396245
469 1 22.28802 -33.095022 -21.16819
470 1 24.559356 -31.97955 -21.168195
471 1 21.16143 -30.80247 -21.168195
472 1 -21.9577695 -29.601216 -24.7396055
473 1 -21.3866052 -27.87048 -22.9539
474 1 -25.32614202 -28.477584 -24.7396105
475 1 -23.6423607 -29.03379 -22.953905
476 1 -23.0792697 -27.292242 -24.7396065
477 1 -24.7613415 -26.731344 -22.9539
478 1 -21.9577593 -29.601216 -21.168195
479 1 -25.32614406 -28.477584 -21.168195
480 1 -23.0792748 -27.292242 -21.168195
481 1 -17.419254 -27.311418 -24.73961
482 1 -17.998155 -29.032668 -22.953905
483 1 -20.272806 -30.17925 -22.953905
484 1 -19.692222 -28.452594 -24.7396055
485 1 -19.11531 -26.732364 -22.9539
486 1 -17.419203 -27.311418 -21.168195
487 1 -19.692222 -28.452594 -21.168195
488 1 -14.023419 -28.465956 -24.739621
489 1 -14.600739 -30.184452 -22.953905
490 1 -13.445742 -26.74746 -22.953915
491 1 -16.300875 -29.609274 -24.739603
492 1 -15.722331 -27.889452 -22.9539
493 1 -14.023419 -28.465956 -21.168195
494 1 -16.300875 -29.609274 -21.1682
495 1 -10.622229 -29.615904 -24.739633
496 1 -8.921226 -30.190164 -22.953915
497 1 -10.045776 -27.898122 -22.953915
498 1 -12.32313 -29.041236 -22.95392
499 1 -11.746116 -27.32325 -24.739633
500 1 -10.622229 -29.615904 -21.168195
501 1 -11.746116 -27.32325 -21.168195
502 1 -4.943226 -29.619882 -24.7396225
503 1 -6.068031 -27.328248 -24.7396235
504 1 -4.367283 -27.901794 -22.953905
505 1 -6.644178 -29.046234 -22.953915
506 1 -8.345028 -28.472382 -24.7396345
507 1 -7.768677 -26.754396 -22.95391
508 1 -4.943226 -29.619882 -21.1682
509 1 -6.068031 -27.328248 -21.168195
510 1 -8.345028 -28.472382 -21.168195
511 1 -2.666484 -28.475238 -24.7396165
512 1 -0.965634 -29.048478 -22.953905
513 1 -3.242325 -30.193326 -22.9539
514 1 -0.389793 -27.330288 -24.7396125
515 1 -2.090592 -26.757048 -22.953905
516 1 -2.666484 -28.475238 -21.168195
517 1 -0.389793 -27.330288 -21.168195
518 1 0.735216 -29.621718 -24.7396085
519 1 2.435964 -30.194958 -22.953905
520 1 3.011805 -28.476768 -24.7396045
521 1 3.587697 -26.75868 -22.953905
522 1 1.311006 -27.903528 -22.953905
523 1 0.735216 -29.621718 -21.1682
524 1 3.011856 -28.476768 -21.1682
525 1 8.113947 -30.1971 -22.953905
526 1 6.413352 -29.623452 -24.739604
527 1 5.288598 -27.332022 -24.7396035
528 1 6.989448 -27.905466 -22.9539
529 1 4.712655 -29.050008 -22.953905
530 1 6.413352 -29.623452 -21.1682
531 1 5.288598 -27.332022 -21.1682
532 1 12.091488 -29.628042 -24.7396075
533 1 12.668757 -27.910464 -22.953895
534 1 8.690349 -28.479216 -24.739599
535 1 10.391097 -29.053374 -22.9539
536 1 10.967754 -27.335796 -24.7396025
537 1 9.266649 -26.761536 -22.953895
538 1 12.091539 -29.628042 -21.168195
539 1 8.690349 -28.479216 -21.168195
540 1 10.967754 -27.335796 -21.168195
541 1 16.647369 -27.343752 -24.7396115
542 1 16.06857 -29.062758 -22.953905
543 1 13.791267 -30.20373 -22.953905
544 1 14.369301 -28.485948 -24.739603
545 1 14.946876 -26.768166 -22.953905
546 1 16.647369 -27.343752 -21.168195
547 1 14.369301 -28.485948 -21.168195
548 1 20.03943 -28.501554 -24.739617
549 1 19.462365 -30.22107 -22.953915
550 1 20.620116 -26.775408 -22.953915
551 1 17.76585 -29.641404 -24.7396195
552 1 18.345057 -27.920868 -22.953905
553 1 20.03943 -28.501554 -21.168195
554 1 17.76585 -29.641404 -21.168195
555 1 23.426901 -29.662722 -24.739617
556 1 25.109034 -30.223824 -22.953905
557 1 23.990043 -27.921378 -22.95391
558 1 21.734058 -29.084178 -22.953915
559 1 22.305309 -27.353646 -24.7396175
560 1 23.426901 -29.662722 -21.168195
561 1 22.305309 -27.353646 -21.168195
562 1 -24.2117196 -24.975516 -24.739603
563 1 -22.5167448 -25.563648 -22.9539
564 1 -21.9404703 -23.85933 -24.7396005
565 1 -23.6798508 -23.275482 -22.95389
566 1 -24.2117247 -24.975516 -21.168195
567 1 -21.9404652 -23.85933 -21.168195
568 1 -20.8140843 -26.151678 -24.7396085
569 1 -18.543192 -25.013562 -24.7396075
570 1 -19.677993 -22.721112 -24.7396105
571 1 -17.970462 -23.298228 -22.9539
572 1 -20.2419 -24.435426 -22.9539
573 1 -20.8140843 -26.151678 -21.168195
574 1 -18.543192 -25.013562 -21.168195
575 1 -19.677993 -22.721112 -21.16819
576 1 -12.86883 -25.029576 -24.739628
577 1 -15.144501 -26.17065 -24.739621
578 1 -16.268847 -23.875752 -24.739614
579 1 -14.568609 -24.45297 -22.953905
580 1 -16.843311 -25.592412 -22.9539
581 1 -13.993941 -22.736514 -24.7396225
582 1 -12.86883 -25.029576 -21.168195
583 1 -15.144501 -26.170548 -21.168195
584 1 -16.268847 -23.875752 -21.168195
585 1 -13.993941 -22.736514 -21.16819
586 1 -9.469068 -26.180136 -24.739635
587 1 -8.892666 -24.462252 -22.95391
588 1 -11.169102 -25.605264 -22.953915
589 1 -10.592802 -23.887584 -24.739632
590 1 -12.29304 -23.312304 -22.953915
591 1 -9.469068 -26.180136 -21.168195
592 1 -10.592802 -23.887584 -21.168195
593 1 -4.915992 -23.892072 -24.7396235
594 1 -5.491935 -25.61016 -22.95391
595 1 -7.192377 -25.03641 -24.739623
596 1 -8.316774 -22.744368 -24.7396305
597 1 -6.616434 -23.318322 -22.953905
598 1 -4.915992 -23.892072 -21.168195
599 1 -7.192377 -25.03641 -21.168195
600 1 -8.316825 -22.744368 -21.16819
601 1 -1.514802 -25.038858 -24.73962
602 1 -0.939063 -23.320668 -22.95391
603 1 -3.79134 -26.183706 -24.739621
604 1 -3.215448 -24.465516 -22.95391
605 1 -2.63976 -22.747326 -24.739619
606 1 -1.514802 -25.038858 -21.168195
607 1 -3.79134 -26.183706 -21.1682
608 1 -2.63976 -22.747326 -21.168195
609 1 1.886796 -26.185338 -24.7396115
610 1 4.163538 -25.040592 -24.73961
611 1 3.038274 -22.749264 -24.739612
612 1 2.462586 -24.46725 -22.953905
613 1 0.185997 -25.612098 -22.953905
614 1 0.761736 -23.89401 -24.7396145
615 1 1.886847 -26.185338 -21.1682
616 1 4.163538 -25.040592 -21.1682
617 1 3.038274 -22.749264 -21.168195
618 1 0.761685 -23.89401 -21.1682
619 1 7.565595 -26.187684 -24.739605
620 1 6.440433 -23.896254 -24.739608
621 1 8.14164 -24.469902 -22.953905
622 1 5.864541 -25.614036 -22.953905
623 1 4.739328 -23.322708 -22.953905
624 1 7.565595 -26.187684 -21.168195
625 1 6.440433 -23.896254 -21.1682
626 1 9.842847 -25.043958 -24.7396015
627 1 11.544105 -25.61832 -22.9539
628 1 12.120201 -23.900742 -24.739605
629 1 10.418892 -23.32638 -22.9539
630 1 8.717532 -22.752324 -24.739607
631 1 9.842847 -25.043958 -21.168195
632 1 12.120252 -23.900742 -21.168195
633 1 8.717532 -22.752324 -21.168195
634 1 13.245465 -26.19309 -24.7396025
635 1 15.522921 -25.050384 -24.7396115
636 1 14.397351 -22.757424 -24.7396145
637 1 16.097946 -23.332092 -22.953905
638 1 13.821459 -24.475512 -22.9539
639 1 13.245465 -26.19309 -21.168195
640 1 15.522921 -25.050384 -21.168195
641 1 14.397351 -22.757424 -21.168195
642 1 18.925998 -26.199312 -24.7396215
643 1 17.799102 -23.906454 -24.7396165
644 1 19.502961 -24.478368 -22.95391
645 1 17.225046 -25.62495 -22.953905
646 1 20.070999 -22.758648 -24.739615
647 1 18.925998 -26.199312 -21.168195
648 1 17.799102 -23.906454 -21.168195
649 1 20.070999 -22.758648 -21.16819
650 1 24.557979 -26.185644 -24.7396125
651 1 25.13535 -24.433896 -22.953895
652 1 21.204882 -25.044162 -24.739614
653 1 22.886658 -25.611996 -22.95391
654 1 23.490906 -23.87106 -24.7396045
655 1 21.780417 -23.322402 -22.9539
656 1 24.557979 -26.185644 -21.168195
657 1 21.204882 -25.044162 -21.168195
658 1 23.490906 -23.87106 -21.168195
659 1 -23.1114201 -21.58779 -24.7396065
660 1 -21.3973713 -22.148688 -22.9539
661 1 -22.5160869 -19.851342 -22.953905
662 1 -24.7487853 -21.027912 -22.953895
663 1 -24.1942062 -19.254438 -24.739618
664 1 -23.111415 -21.58779 -21.16819
665 1 -24.1942011 -19.254438 -21.16819
666 1 -17.402118 -21.585036 -24.7396205
667 1 -18.537837 -19.29738 -24.7396245
668 1 -19.111893 -21.01149 -22.95391
669 1 -20.8216731 -20.438556 -24.739619
670 1 -20.235984 -18.720468 -22.953915
671 1 -17.402118 -21.585036 -21.168195
672 1 -18.537837 -19.29738 -21.168195
673 1 -20.8216731 -20.438556 -21.168195
674 1 -15.124815 -20.446614 -24.739619
675 1 -13.420599 -21.020976 -22.95391
676 1 -15.696423 -22.160418 -22.953905
677 1 -12.847665 -19.305846 -24.739616
678 1 -14.551932 -18.732504 -22.953905
679 1 -16.831428 -19.872354 -22.95391
680 1 -15.124815 -20.446614 -21.168195
681 1 -12.847665 -19.305846 -21.168195
682 1 -11.718372 -21.595644 -24.739627
683 1 -10.017318 -22.170108 -22.95391
684 1 -9.442701 -20.45304 -24.739628
685 1 -8.868696 -18.735972 -22.95391
686 1 -11.144571 -19.879392 -22.95391
687 1 -11.718372 -21.595644 -21.168195
688 1 -9.442701 -20.45304 -21.168195
689 1 -4.340355 -22.173882 -22.95391
690 1 -6.04095 -21.600336 -24.7396225
691 1 -7.167081 -19.30911 -24.7396215
692 1 -5.465976 -19.882452 -22.95391
693 1 -7.741647 -21.026688 -22.953915
694 1 -6.04095 -21.600336 -21.168195
695 1 -7.167081 -19.30911 -21.168195
696 1 -0.363579 -21.60258 -24.739617
697 1 -3.765126 -20.455794 -24.7396145
698 1 -2.064378 -21.029238 -22.953905
699 1 -1.489251 -19.31115 -24.7396135
700 1 -3.190305 -18.73791 -22.953905
701 1 -0.363579 -21.60258 -21.1682
702 1 -3.765126 -20.455794 -21.1682
703 1 -1.489251 -19.31115 -21.1682
704 1 4.189089 -19.313394 -24.739619
705 1 3.613809 -21.031278 -22.953905
706 1 1.337322 -22.175922 -22.953905
707 1 1.912704 -20.457834 -24.7396165
708 1 2.487882 -18.73995 -22.95391
709 1 0.211701 -19.884492 -22.953905
710 1 4.189089 -19.313394 -21.168195
711 1 1.912704 -20.457834 -21.1682
712 1 7.591758 -20.460792 -24.739615
713 1 7.016172 -22.178472 -22.953905
714 1 8.167089 -18.74301 -22.95391
715 1 5.314965 -21.604824 -24.739614
716 1 5.890398 -19.887042 -22.953905
717 1 7.591758 -20.460792 -21.168195
718 1 5.314965 -21.604824 -21.1682
719 1 10.994631 -21.608802 -24.7396135
720 1 12.696195 -22.18296 -22.953905
721 1 11.569962 -19.89102 -22.95391
722 1 9.293118 -21.034644 -22.953905
723 1 9.868551 -19.316964 -24.7396185
724 1 10.994631 -21.608802 -21.168195
725 1 9.868551 -19.316964 -21.168195
726 1 16.673991 -21.612474 -24.739619
727 1 15.547758 -19.32033 -24.7396215
728 1 14.973243 -21.038928 -22.953905
729 1 13.271526 -20.465076 -24.739612
730 1 13.846347 -18.746784 -22.953905
731 1 16.673991 -21.612474 -21.168195
732 1 15.547758 -19.32033 -21.16819
733 1 13.271526 -20.465076 -21.168195
734 1 18.95109 -20.464056 -24.7396125
735 1 20.643831 -21.035052 -22.9539
736 1 18.37224 -22.186122 -22.953905
737 1 19.527288 -18.74454 -22.953905
738 1 17.249934 -19.892856 -22.953905
739 1 18.95109 -20.464056 -21.16819
740 1 22.330962 -21.608904 -24.739604
741 1 24.067308 -22.191936 -22.95389
742 1 24.603624 -20.501388 -24.739603
743 1 25.159677 -18.733218 -22.95391
744 1 22.924041 -19.9002 -22.953895
745 1 21.232575 -19.313904 -24.7396145
746 1 22.330962 -21.608904 -21.168195
747 1 24.603624 -20.501388 -21.16819
748 1 21.232575 -19.313904 -21.16819
749 1 -21.9273531 -18.140598 -24.739627
750 1 -21.3802863 -16.42965 -22.953905
751 1 -23.6651883 -17.554914 -22.95391
752 1 -23.0921982 -15.867834 -24.7396225
753 1 -24.7256466 -15.302856 -22.953905
754 1 -21.927348 -18.140598 -21.16819
755 1 -23.0922084 -15.867834 -21.16819
756 1 -17.384829 -15.869262 -24.7396195
757 1 -17.958732 -17.58276 -22.95391
758 1 -19.663662 -17.00442 -24.7396265
759 1 -20.8008447 -14.720742 -24.7396125
760 1 -19.092615 -15.295104 -22.953905
761 1 -17.384829 -15.869364 -21.168195
762 1 -19.663662 -17.00442 -21.168195
763 1 -20.8008447 -14.720742 -21.168195
764 1 -13.977264 -17.017374 -24.739613
765 1 -13.402545 -15.30153 -22.9539
766 1 -16.256148 -18.158652 -24.739623
767 1 -15.68046 -16.443828 -22.953905
768 1 -15.105741 -14.729004 -24.73961
769 1 -13.977264 -17.017374 -21.168195
770 1 -16.256148 -18.158652 -21.16819
771 1 -15.105741 -14.729004 -21.168195
772 1 -10.571025 -18.163038 -24.739615
773 1 -9.423168 -14.72931 -24.7395925
774 1 -9.997224 -16.44648 -22.9539
775 1 -12.274017 -17.590308 -22.953905
776 1 -11.699808 -15.874056 -24.7395985
777 1 -10.571025 -18.163038 -21.168195
778 1 -9.423168 -14.72931 -21.1682
779 1 -11.699808 -15.874056 -21.168195
780 1 -4.891461 -18.16467 -24.739614
781 1 -6.01902 -15.87426 -24.739603
782 1 -4.317252 -16.447092 -22.953905
783 1 -6.592974 -17.591634 -22.953905
784 1 -8.294895 -17.018904 -24.7396075
785 1 -7.720992 -15.301632 -22.9539
786 1 -4.891512 -18.16467 -21.168195
787 1 -6.01902 -15.87426 -21.1682
788 1 -8.294895 -17.018904 -21.1682
789 1 -2.61579 -17.020026 -24.739607